<?xml version="1.0" encoding="UTF-8"?>

<!-- generated on 2024-04-27 00:35:26 by Eclipse SUMO sumo Version 1.19.0
<configuration xmlns:xsi="http://www.w3.org/2001/XMLSchema-instance" xsi:noNamespaceSchemaLocation="http://sumo.dlr.de/xsd/sumoConfiguration.xsd">

    <input>
        <net-file value="../sumo_files/network_modified.net.xml"/>
        <route-files value="../sumo_files/routefile.rou.xml"/>
    </input>

    <output>
        <tripinfo-output value="../sumo_files/tripinfo.xml"/>
    </output>

    <time>
        <begin value="0"/>
        <end value="2000"/>
    </time>

    <processing>
        <scale value="1"/>
    </processing>

    <gui_only>
        <quit-on-end value="true"/>
        <start value="true"/>
    </gui_only>

</configuration>
-->

<tripinfos xmlns:xsi="http://www.w3.org/2001/XMLSchema-instance" xsi:noNamespaceSchemaLocation="http://sumo.dlr.de/xsd/tripinfo_file.xsd">
    <tripinfo id="2" depart="2.00" departLane="19552780_0" departPos="5.10" departSpeed="0.00" departDelay="0.00" arrival="28.00" arrivalLane="19527973#1_0" arrivalPos="29.97" arrivalSpeed="13.90" duration="26.00" routeLength="176.51" waitingTime="3.00" waitingCount="1" stopTime="0.00" timeLoss="13.14" rerouteNo="0" devices="tripinfo_2" vType="DEFAULT_VEHTYPE" speedFactor="1.01" vaporized=""/>
    <tripinfo id="7" depart="7.00" departLane="187697932_0" departPos="5.10" departSpeed="0.00" departDelay="0.00" arrival="51.00" arrivalLane="1256973142#1_0" arrivalPos="163.95" arrivalSpeed="11.49" duration="44.00" routeLength="393.77" waitingTime="0.00" waitingCount="0" stopTime="0.00" timeLoss="9.38" rerouteNo="0" devices="tripinfo_7" vType="DEFAULT_VEHTYPE" speedFactor="0.89" vaporized=""/>
    <tripinfo id="6" depart="6.00" departLane="-1166042012_0" departPos="5.10" departSpeed="0.00" departDelay="0.00" arrival="88.00" arrivalLane="-203195317_0" arrivalPos="10.64" arrivalSpeed="12.97" duration="82.00" routeLength="603.49" waitingTime="19.00" waitingCount="2" stopTime="0.00" timeLoss="50.80" rerouteNo="0" devices="tripinfo_6" vType="DEFAULT_VEHTYPE" speedFactor="1.05" vaporized=""/>
    <tripinfo id="8" depart="8.00" departLane="-19552780_0" departPos="5.10" departSpeed="0.00" departDelay="0.00" arrival="92.00" arrivalLane="187697932_0" arrivalPos="76.40" arrivalSpeed="11.85" duration="84.00" routeLength="415.85" waitingTime="26.00" waitingCount="2" stopTime="0.00" timeLoss="50.85" rerouteNo="0" devices="tripinfo_8" vType="DEFAULT_VEHTYPE" speedFactor="0.94" vaporized=""/>
    <tripinfo id="4" depart="4.00" departLane="-830696993#1_0" departPos="5.10" departSpeed="0.00" departDelay="0.00" arrival="102.00" arrivalLane="-1166042012_0" arrivalPos="74.36" arrivalSpeed="13.42" duration="98.00" routeLength="515.64" waitingTime="43.00" waitingCount="2" stopTime="0.00" timeLoss="72.43" rerouteNo="0" devices="tripinfo_4" vType="DEFAULT_VEHTYPE" speedFactor="1.03" vaporized=""/>
    <tripinfo id="5" depart="5.00" departLane="-19552780_0" departPos="5.10" departSpeed="0.00" departDelay="0.00" arrival="108.00" arrivalLane="1256973142#0_0" arrivalPos="182.62" arrivalSpeed="11.28" duration="103.00" routeLength="660.21" waitingTime="26.00" waitingCount="2" stopTime="0.00" timeLoss="48.66" rerouteNo="0" devices="tripinfo_5" vType="DEFAULT_VEHTYPE" speedFactor="0.83" vaporized=""/>
    <tripinfo id="3" depart="3.00" departLane="830696983_0" departPos="5.10" departSpeed="0.00" departDelay="0.00" arrival="124.00" arrivalLane="-19527973#0_0" arrivalPos="19.72" arrivalSpeed="9.86" duration="121.00" routeLength="580.64" waitingTime="53.00" waitingCount="4" stopTime="0.00" timeLoss="95.92" rerouteNo="0" devices="tripinfo_3" vType="DEFAULT_VEHTYPE" speedFactor="1.08" vaporized=""/>
    <tripinfo id="0" depart="0.00" departLane="187697932_0" departPos="5.10" departSpeed="0.00" departDelay="0.00" arrival="139.00" arrivalLane="-1166042012_0" arrivalPos="74.36" arrivalSpeed="13.65" duration="139.00" routeLength="743.24" waitingTime="57.00" waitingCount="4" stopTime="0.00" timeLoss="102.49" rerouteNo="0" devices="tripinfo_0" vType="DEFAULT_VEHTYPE" speedFactor="1.06" vaporized=""/>
    <tripinfo id="1" depart="1.00" departLane="-826542444_0" departPos="5.10" departSpeed="0.00" departDelay="0.00" arrival="155.00" arrivalLane="-49828222_0" arrivalPos="3.99" arrivalSpeed="7.52" duration="154.00" routeLength="565.16" waitingTime="96.00" waitingCount="4" stopTime="0.00" timeLoss="132.31" rerouteNo="0" devices="tripinfo_1" vType="DEFAULT_VEHTYPE" speedFactor="0.94" vaporized=""/>
    <tripinfo id="9" depart="9.00" departLane="686489223_0" departPos="5.10" departSpeed="0.00" departDelay="0.00" arrival="174.00" arrivalLane="-1166042012_0" arrivalPos="74.36" arrivalSpeed="11.70" duration="165.00" routeLength="826.43" waitingTime="72.00" waitingCount="5" stopTime="0.00" timeLoss="120.33" rerouteNo="0" devices="tripinfo_9" vType="DEFAULT_VEHTYPE" speedFactor="0.86" vaporized=""/>
    <tripinfo id="10" depart="10.00" departLane="-827216456_0" departPos="5.10" departSpeed="0.00" departDelay="0.00" arrival="193.00" arrivalLane="-49828222_0" arrivalPos="3.99" arrivalSpeed="8.68" duration="183.00" routeLength="697.44" waitingTime="105.00" waitingCount="5" stopTime="0.00" timeLoss="159.94" rerouteNo="0" devices="tripinfo_10" vType="DEFAULT_VEHTYPE" speedFactor="1.09" vaporized=""/>
</tripinfos>
