<?xml version="1.0" encoding="UTF-8"?>

<!-- generated on 2024-04-26 13:57:16 by Eclipse SUMO GUI Version 1.19.0
<configuration xmlns:xsi="http://www.w3.org/2001/XMLSchema-instance" xsi:noNamespaceSchemaLocation="http://sumo.dlr.de/xsd/sumoConfiguration.xsd">

    <input>
        <net-file value="../sumo_files/network_modified.net.xml"/>
        <route-files value="../sumo_files/routefile.rou.xml"/>
    </input>

    <output>
        <tripinfo-output value="../sumo_files/tripinfo.xml"/>
    </output>

    <time>
        <begin value="0"/>
        <end value="2000"/>
    </time>

    <processing>
        <scale value="1000"/>
    </processing>

    <traci_server>
        <remote-port value="64554"/>
    </traci_server>

    <gui_only>
        <quit-on-end value="true"/>
        <start value="true"/>
    </gui_only>

</configuration>
-->

<tripinfos xmlns:xsi="http://www.w3.org/2001/XMLSchema-instance" xsi:noNamespaceSchemaLocation="http://sumo.dlr.de/xsd/tripinfo_file.xsd">
    <tripinfo id="2" depart="2.00" departLane="19552780_0" departPos="5.10" departSpeed="0.00" departDelay="0.00" arrival="50.00" arrivalLane="19527973#1_0" arrivalPos="29.97" arrivalSpeed="15.30" duration="48.00" routeLength="176.51" waitingTime="25.00" waitingCount="1" stopTime="0.00" timeLoss="36.85" rerouteNo="0" devices="tripinfo_2" vType="DEFAULT_VEHTYPE" speedFactor="1.17" vaporized=""/>
    <tripinfo id="2.1" depart="5.00" departLane="19552780_0" departPos="5.10" departSpeed="0.00" departDelay="3.00" arrival="52.00" arrivalLane="19527973#1_0" arrivalPos="29.97" arrivalSpeed="13.63" duration="47.00" routeLength="176.51" waitingTime="24.00" waitingCount="1" stopTime="0.00" timeLoss="34.29" rerouteNo="0" devices="tripinfo_2.1" vType="DEFAULT_VEHTYPE" speedFactor="1.02" vaporized=""/>
    <tripinfo id="2.2" depart="8.00" departLane="19552780_0" departPos="5.10" departSpeed="0.00" departDelay="6.00" arrival="55.00" arrivalLane="19527973#1_0" arrivalPos="29.97" arrivalSpeed="11.77" duration="47.00" routeLength="176.51" waitingTime="22.00" waitingCount="1" stopTime="0.00" timeLoss="31.80" rerouteNo="0" devices="tripinfo_2.2" vType="DEFAULT_VEHTYPE" speedFactor="0.86" vaporized=""/>
    <tripinfo id="2.3" depart="11.00" departLane="19552780_0" departPos="5.10" departSpeed="0.00" departDelay="9.00" arrival="57.00" arrivalLane="19527973#1_0" arrivalPos="29.97" arrivalSpeed="14.53" duration="46.00" routeLength="176.51" waitingTime="22.00" waitingCount="1" stopTime="0.00" timeLoss="33.95" rerouteNo="0" devices="tripinfo_2.3" vType="DEFAULT_VEHTYPE" speedFactor="1.13" vaporized=""/>
    <tripinfo id="1" depart="1.00" departLane="-826542444_0" departPos="5.10" departSpeed="0.00" departDelay="0.00" arrival="99.00" arrivalLane="-49828222_0" arrivalPos="3.99" arrivalSpeed="17.19" duration="98.00" routeLength="565.16" waitingTime="58.00" waitingCount="1" stopTime="0.00" timeLoss="78.05" rerouteNo="0" devices="tripinfo_1" vType="DEFAULT_VEHTYPE" speedFactor="1.03" vaporized=""/>
    <tripinfo id="1.1" depart="4.00" departLane="-826542444_0" departPos="5.10" departSpeed="0.00" departDelay="3.00" arrival="99.00" arrivalLane="-49828222_1" arrivalPos="3.99" arrivalSpeed="18.02" duration="95.00" routeLength="565.16" waitingTime="55.00" waitingCount="1" stopTime="0.00" timeLoss="72.86" rerouteNo="0" devices="tripinfo_1.1" vType="DEFAULT_VEHTYPE" speedFactor="0.94" vaporized=""/>
    <tripinfo id="1.2" depart="7.00" departLane="-826542444_0" departPos="5.10" departSpeed="0.00" departDelay="6.00" arrival="102.00" arrivalLane="-49828222_0" arrivalPos="3.99" arrivalSpeed="15.89" duration="95.00" routeLength="565.16" waitingTime="55.00" waitingCount="1" stopTime="0.00" timeLoss="74.92" rerouteNo="0" devices="tripinfo_1.2" vType="DEFAULT_VEHTYPE" speedFactor="1.04" vaporized=""/>
    <tripinfo id="5" depart="5.00" departLane="-19552780_0" departPos="5.10" departSpeed="0.00" departDelay="0.00" arrival="112.00" arrivalLane="1256973142#0_0" arrivalPos="182.62" arrivalSpeed="13.49" duration="107.00" routeLength="660.21" waitingTime="35.00" waitingCount="2" stopTime="0.00" timeLoss="61.55" rerouteNo="0" devices="tripinfo_5" vType="DEFAULT_VEHTYPE" speedFactor="0.99" vaporized=""/>
    <tripinfo id="5.1" depart="8.00" departLane="-19552780_0" departPos="5.10" departSpeed="0.00" departDelay="3.00" arrival="113.00" arrivalLane="1256973142#0_0" arrivalPos="182.62" arrivalSpeed="14.96" duration="105.00" routeLength="660.21" waitingTime="33.00" waitingCount="2" stopTime="0.00" timeLoss="64.17" rerouteNo="0" devices="tripinfo_5.1" vType="DEFAULT_VEHTYPE" speedFactor="1.11" vaporized=""/>
    <tripinfo id="5.2" depart="14.00" departLane="-19552780_0" departPos="5.10" departSpeed="0.00" departDelay="9.00" arrival="115.00" arrivalLane="1256973142#0_0" arrivalPos="182.62" arrivalSpeed="17.30" duration="101.00" routeLength="660.21" waitingTime="28.00" waitingCount="2" stopTime="0.00" timeLoss="65.45" rerouteNo="0" devices="tripinfo_5.2" vType="DEFAULT_VEHTYPE" speedFactor="1.27" vaporized=""/>
    <tripinfo id="4" depart="4.00" departLane="-830696993#1_0" departPos="5.10" departSpeed="0.00" departDelay="0.00" arrival="116.00" arrivalLane="-1166042012_0" arrivalPos="74.36" arrivalSpeed="4.95" duration="112.00" routeLength="515.64" waitingTime="56.00" waitingCount="1" stopTime="0.00" timeLoss="87.62" rerouteNo="0" devices="tripinfo_4" vType="DEFAULT_VEHTYPE" speedFactor="1.02" vaporized=""/>
    <tripinfo id="6" depart="6.00" departLane="-1166042012_0" departPos="5.10" departSpeed="0.00" departDelay="0.00" arrival="117.00" arrivalLane="-203195317_0" arrivalPos="10.64" arrivalSpeed="12.30" duration="111.00" routeLength="603.49" waitingTime="29.00" waitingCount="3" stopTime="0.00" timeLoss="80.22" rerouteNo="0" devices="tripinfo_6" vType="DEFAULT_VEHTYPE" speedFactor="1.09" vaporized=""/>
    <tripinfo id="4.1" depart="7.00" departLane="-830696993#1_0" departPos="5.10" departSpeed="0.00" departDelay="3.00" arrival="119.00" arrivalLane="-1166042012_0" arrivalPos="74.36" arrivalSpeed="7.15" duration="112.00" routeLength="515.64" waitingTime="55.00" waitingCount="1" stopTime="0.00" timeLoss="84.50" rerouteNo="0" devices="tripinfo_4.1" vType="DEFAULT_VEHTYPE" speedFactor="0.92" vaporized=""/>
    <tripinfo id="4.2" depart="10.00" departLane="-830696993#1_0" departPos="5.10" departSpeed="0.00" departDelay="6.00" arrival="121.00" arrivalLane="-1166042012_0" arrivalPos="74.36" arrivalSpeed="11.19" duration="111.00" routeLength="515.64" waitingTime="54.00" waitingCount="1" stopTime="0.00" timeLoss="86.73" rerouteNo="0" devices="tripinfo_4.2" vType="DEFAULT_VEHTYPE" speedFactor="1.07" vaporized=""/>
    <tripinfo id="5.3" depart="17.00" departLane="-19552780_0" departPos="5.10" departSpeed="0.00" departDelay="12.00" arrival="121.00" arrivalLane="1256973142#0_0" arrivalPos="182.62" arrivalSpeed="11.66" duration="104.00" routeLength="660.21" waitingTime="23.00" waitingCount="2" stopTime="0.00" timeLoss="53.91" rerouteNo="0" devices="tripinfo_5.3" vType="DEFAULT_VEHTYPE" speedFactor="0.92" vaporized=""/>
    <tripinfo id="5.4" depart="20.00" departLane="-19552780_0" departPos="5.10" departSpeed="0.00" departDelay="15.00" arrival="122.00" arrivalLane="1256973142#0_0" arrivalPos="182.62" arrivalSpeed="13.24" duration="102.00" routeLength="660.21" waitingTime="19.00" waitingCount="2" stopTime="0.00" timeLoss="56.91" rerouteNo="0" devices="tripinfo_5.4" vType="DEFAULT_VEHTYPE" speedFactor="1.00" vaporized=""/>
    <tripinfo id="4.3" depart="13.00" departLane="-830696993#1_0" departPos="5.10" departSpeed="0.00" departDelay="9.00" arrival="123.00" arrivalLane="-1166042012_0" arrivalPos="74.36" arrivalSpeed="11.93" duration="110.00" routeLength="515.64" waitingTime="52.00" waitingCount="1" stopTime="0.00" timeLoss="88.15" rerouteNo="0" devices="tripinfo_4.3" vType="DEFAULT_VEHTYPE" speedFactor="1.17" vaporized=""/>
    <tripinfo id="4.4" depart="24.00" departLane="-830696993#1_0" departPos="5.10" departSpeed="0.00" departDelay="20.00" arrival="125.00" arrivalLane="-1166042012_0" arrivalPos="74.36" arrivalSpeed="13.69" duration="101.00" routeLength="515.64" waitingTime="48.00" waitingCount="1" stopTime="0.00" timeLoss="75.04" rerouteNo="0" devices="tripinfo_4.4" vType="DEFAULT_VEHTYPE" speedFactor="1.01" vaporized=""/>
    <tripinfo id="5.5" depart="23.00" departLane="-19552780_0" departPos="5.10" departSpeed="0.00" departDelay="18.00" arrival="127.00" arrivalLane="1256973142#0_0" arrivalPos="182.62" arrivalSpeed="11.66" duration="104.00" routeLength="660.21" waitingTime="16.00" waitingCount="2" stopTime="0.00" timeLoss="53.34" rerouteNo="0" devices="tripinfo_5.5" vType="DEFAULT_VEHTYPE" speedFactor="0.90" vaporized=""/>
    <tripinfo id="1.3" depart="10.00" departLane="-826542444_0" departPos="5.10" departSpeed="0.00" departDelay="9.00" arrival="185.00" arrivalLane="-49828222_0" arrivalPos="3.99" arrivalSpeed="16.89" duration="175.00" routeLength="565.16" waitingTime="122.00" waitingCount="2" stopTime="0.00" timeLoss="154.14" rerouteNo="0" devices="tripinfo_1.3" vType="DEFAULT_VEHTYPE" speedFactor="0.99" vaporized=""/>
    <tripinfo id="1.4" depart="13.00" departLane="-826542444_0" departPos="5.10" departSpeed="0.00" departDelay="12.00" arrival="188.00" arrivalLane="-49828222_0" arrivalPos="3.99" arrivalSpeed="16.32" duration="175.00" routeLength="565.16" waitingTime="112.00" waitingCount="2" stopTime="0.00" timeLoss="153.40" rerouteNo="0" devices="tripinfo_1.4" vType="DEFAULT_VEHTYPE" speedFactor="0.96" vaporized=""/>
    <tripinfo id="1.5" depart="16.00" departLane="-826542444_0" departPos="5.10" departSpeed="0.00" departDelay="15.00" arrival="190.00" arrivalLane="-49828222_0" arrivalPos="3.99" arrivalSpeed="14.63" duration="174.00" routeLength="565.16" waitingTime="108.00" waitingCount="2" stopTime="0.00" timeLoss="151.29" rerouteNo="0" devices="tripinfo_1.5" vType="DEFAULT_VEHTYPE" speedFactor="0.90" vaporized=""/>
    <tripinfo id="1.7" depart="22.00" departLane="-826542444_0" departPos="5.10" departSpeed="0.00" departDelay="21.00" arrival="192.00" arrivalLane="-49828222_0" arrivalPos="3.99" arrivalSpeed="18.15" duration="170.00" routeLength="565.16" waitingTime="101.00" waitingCount="2" stopTime="0.00" timeLoss="143.31" rerouteNo="0" devices="tripinfo_1.7" vType="DEFAULT_VEHTYPE" speedFactor="0.78" vaporized=""/>
    <tripinfo id="5.6" depart="26.00" departLane="-19552780_0" departPos="5.10" departSpeed="0.00" departDelay="21.00" arrival="198.00" arrivalLane="1256973142#0_0" arrivalPos="182.62" arrivalSpeed="12.25" duration="172.00" routeLength="660.21" waitingTime="86.00" waitingCount="3" stopTime="0.00" timeLoss="121.64" rerouteNo="0" devices="tripinfo_5.6" vType="DEFAULT_VEHTYPE" speedFactor="0.89" vaporized=""/>
    <tripinfo id="5.7" depart="29.00" departLane="-19552780_0" departPos="5.10" departSpeed="0.00" departDelay="24.00" arrival="199.00" arrivalLane="1256973142#0_0" arrivalPos="182.62" arrivalSpeed="13.84" duration="170.00" routeLength="660.21" waitingTime="82.00" waitingCount="3" stopTime="0.00" timeLoss="126.06" rerouteNo="0" devices="tripinfo_5.7" vType="DEFAULT_VEHTYPE" speedFactor="1.02" vaporized=""/>
    <tripinfo id="5.8" depart="32.00" departLane="-19552780_0" departPos="5.10" departSpeed="0.00" departDelay="27.00" arrival="201.00" arrivalLane="1256973142#0_0" arrivalPos="182.62" arrivalSpeed="13.73" duration="169.00" routeLength="660.21" waitingTime="79.00" waitingCount="2" stopTime="0.00" timeLoss="125.32" rerouteNo="0" devices="tripinfo_5.8" vType="DEFAULT_VEHTYPE" speedFactor="1.05" vaporized=""/>
    <tripinfo id="6.1" depart="9.00" departLane="-1166042012_0" departPos="5.10" departSpeed="0.00" departDelay="3.00" arrival="203.00" arrivalLane="-203195317_0" arrivalPos="10.64" arrivalSpeed="11.71" duration="194.00" routeLength="603.49" waitingTime="108.00" waitingCount="4" stopTime="0.00" timeLoss="157.82" rerouteNo="0" devices="tripinfo_6.1" vType="DEFAULT_VEHTYPE" speedFactor="0.92" vaporized=""/>
    <tripinfo id="5.9" depart="35.00" departLane="-19552780_0" departPos="5.10" departSpeed="0.00" departDelay="30.00" arrival="209.00" arrivalLane="1256973142#0_0" arrivalPos="182.62" arrivalSpeed="10.55" duration="174.00" routeLength="660.21" waitingTime="77.00" waitingCount="2" stopTime="0.00" timeLoss="118.62" rerouteNo="0" devices="tripinfo_5.9" vType="DEFAULT_VEHTYPE" speedFactor="0.82" vaporized=""/>
    <tripinfo id="5.10" depart="38.00" departLane="-19552780_0" departPos="5.10" departSpeed="0.00" departDelay="33.00" arrival="211.00" arrivalLane="1256973142#0_0" arrivalPos="182.62" arrivalSpeed="13.63" duration="173.00" routeLength="660.21" waitingTime="75.00" waitingCount="2" stopTime="0.00" timeLoss="131.55" rerouteNo="0" devices="tripinfo_5.10" vType="DEFAULT_VEHTYPE" speedFactor="1.11" vaporized=""/>
    <tripinfo id="5.11" depart="41.00" departLane="-19552780_0" departPos="5.10" departSpeed="0.00" departDelay="36.00" arrival="213.00" arrivalLane="1256973142#0_0" arrivalPos="182.62" arrivalSpeed="12.24" duration="172.00" routeLength="660.21" waitingTime="73.00" waitingCount="2" stopTime="0.00" timeLoss="123.56" rerouteNo="0" devices="tripinfo_5.11" vType="DEFAULT_VEHTYPE" speedFactor="0.96" vaporized=""/>
    <tripinfo id="5.12" depart="44.00" departLane="-19552780_0" departPos="5.10" departSpeed="0.00" departDelay="39.00" arrival="214.00" arrivalLane="1256973142#0_0" arrivalPos="182.62" arrivalSpeed="12.84" duration="170.00" routeLength="660.21" waitingTime="71.00" waitingCount="2" stopTime="0.00" timeLoss="124.83" rerouteNo="0" devices="tripinfo_5.12" vType="DEFAULT_VEHTYPE" speedFactor="1.00" vaporized=""/>
    <tripinfo id="5.13" depart="47.00" departLane="-19552780_0" departPos="5.10" departSpeed="0.00" departDelay="42.00" arrival="217.00" arrivalLane="1256973142#0_0" arrivalPos="182.62" arrivalSpeed="11.84" duration="170.00" routeLength="660.21" waitingTime="66.00" waitingCount="2" stopTime="0.00" timeLoss="120.01" rerouteNo="0" devices="tripinfo_5.13" vType="DEFAULT_VEHTYPE" speedFactor="0.90" vaporized=""/>
    <tripinfo id="3" depart="3.00" departLane="830696983_0" departPos="5.10" departSpeed="0.00" departDelay="0.00" arrival="218.00" arrivalLane="-19527973#0_0" arrivalPos="19.72" arrivalSpeed="7.38" duration="215.00" routeLength="580.64" waitingTime="149.00" waitingCount="5" stopTime="0.00" timeLoss="186.51" rerouteNo="0" devices="tripinfo_3" vType="DEFAULT_VEHTYPE" speedFactor="0.92" vaporized=""/>
    <tripinfo id="4.5" depart="25.00" departLane="-830696993#1_0" departPos="5.10" departSpeed="0.00" departDelay="21.00" arrival="257.00" arrivalLane="-1166042012_0" arrivalPos="74.36" arrivalSpeed="4.99" duration="232.00" routeLength="515.64" waitingTime="156.00" waitingCount="3" stopTime="0.00" timeLoss="209.48" rerouteNo="0" devices="tripinfo_4.5" vType="DEFAULT_VEHTYPE" speedFactor="1.14" vaporized=""/>
    <tripinfo id="6.2" depart="12.00" departLane="-1166042012_0" departPos="5.10" departSpeed="0.00" departDelay="6.00" arrival="257.00" arrivalLane="-203195317_0" arrivalPos="10.64" arrivalSpeed="11.91" duration="245.00" routeLength="603.49" waitingTime="158.00" waitingCount="4" stopTime="0.00" timeLoss="212.94" rerouteNo="0" devices="tripinfo_6.2" vType="DEFAULT_VEHTYPE" speedFactor="1.02" vaporized=""/>
    <tripinfo id="4.8" depart="33.00" departLane="-830696993#1_0" departPos="5.10" departSpeed="0.00" departDelay="29.00" arrival="260.00" arrivalLane="-1166042012_0" arrivalPos="74.36" arrivalSpeed="7.88" duration="227.00" routeLength="515.64" waitingTime="149.00" waitingCount="3" stopTime="0.00" timeLoss="198.64" rerouteNo="0" devices="tripinfo_4.8" vType="DEFAULT_VEHTYPE" speedFactor="0.91" vaporized=""/>
    <tripinfo id="6.3" depart="15.00" departLane="-1166042012_0" departPos="5.10" departSpeed="0.00" departDelay="9.00" arrival="261.00" arrivalLane="-203195317_0" arrivalPos="10.64" arrivalSpeed="11.78" duration="246.00" routeLength="603.49" waitingTime="149.00" waitingCount="4" stopTime="0.00" timeLoss="210.41" rerouteNo="0" devices="tripinfo_6.3" vType="DEFAULT_VEHTYPE" speedFactor="0.94" vaporized=""/>
    <tripinfo id="4.9" depart="36.00" departLane="-830696993#1_0" departPos="5.10" departSpeed="0.00" departDelay="32.00" arrival="262.00" arrivalLane="-1166042012_0" arrivalPos="74.36" arrivalSpeed="9.76" duration="226.00" routeLength="515.64" waitingTime="149.00" waitingCount="3" stopTime="0.00" timeLoss="200.90" rerouteNo="0" devices="tripinfo_4.9" vType="DEFAULT_VEHTYPE" speedFactor="1.02" vaporized=""/>
    <tripinfo id="4.10" depart="40.00" departLane="-830696993#1_0" departPos="5.10" departSpeed="0.00" departDelay="36.00" arrival="264.00" arrivalLane="-1166042012_0" arrivalPos="74.36" arrivalSpeed="11.25" duration="224.00" routeLength="515.64" waitingTime="145.00" waitingCount="3" stopTime="0.00" timeLoss="197.93" rerouteNo="0" devices="tripinfo_4.10" vType="DEFAULT_VEHTYPE" speedFactor="1.01" vaporized=""/>
    <tripinfo id="6.4" depart="18.00" departLane="-1166042012_0" departPos="5.10" departSpeed="0.00" departDelay="12.00" arrival="264.00" arrivalLane="-203195317_0" arrivalPos="10.64" arrivalSpeed="10.55" duration="246.00" routeLength="603.49" waitingTime="143.00" waitingCount="4" stopTime="0.00" timeLoss="205.61" rerouteNo="0" devices="tripinfo_6.4" vType="DEFAULT_VEHTYPE" speedFactor="0.82" vaporized=""/>
    <tripinfo id="4.16" depart="57.00" departLane="-830696993#1_0" departPos="5.10" departSpeed="0.00" departDelay="53.00" arrival="266.00" arrivalLane="-1166042012_0" arrivalPos="74.36" arrivalSpeed="11.64" duration="209.00" routeLength="515.64" waitingTime="133.00" waitingCount="3" stopTime="0.00" timeLoss="183.28" rerouteNo="0" devices="tripinfo_4.16" vType="DEFAULT_VEHTYPE" speedFactor="1.01" vaporized=""/>
    <tripinfo id="4.12" depart="46.00" departLane="-830696993#1_0" departPos="5.10" departSpeed="0.00" departDelay="42.00" arrival="268.00" arrivalLane="-1166042012_0" arrivalPos="74.36" arrivalSpeed="13.07" duration="222.00" routeLength="515.64" waitingTime="141.00" waitingCount="5" stopTime="0.00" timeLoss="198.06" rerouteNo="0" devices="tripinfo_4.12" vType="DEFAULT_VEHTYPE" speedFactor="1.07" vaporized=""/>
    <tripinfo id="4.6" depart="28.00" departLane="-830696993#1_0" departPos="5.10" departSpeed="0.00" departDelay="24.00" arrival="277.00" arrivalLane="-1166042012_0" arrivalPos="74.36" arrivalSpeed="4.38" duration="249.00" routeLength="515.64" waitingTime="166.00" waitingCount="4" stopTime="0.00" timeLoss="226.75" rerouteNo="0" devices="tripinfo_4.6" vType="DEFAULT_VEHTYPE" speedFactor="1.11" vaporized=""/>
    <tripinfo id="5.14" depart="50.00" departLane="-19552780_0" departPos="5.10" departSpeed="0.00" departDelay="45.00" arrival="278.00" arrivalLane="1256973142#0_0" arrivalPos="182.62" arrivalSpeed="14.30" duration="228.00" routeLength="660.21" waitingTime="122.00" waitingCount="3" stopTime="0.00" timeLoss="185.23" rerouteNo="0" devices="tripinfo_5.14" vType="DEFAULT_VEHTYPE" speedFactor="1.07" vaporized=""/>
    <tripinfo id="4.15" depart="54.00" departLane="-830696993#1_0" departPos="5.10" departSpeed="0.00" departDelay="50.00" arrival="280.00" arrivalLane="-1166042012_0" arrivalPos="74.36" arrivalSpeed="8.64" duration="226.00" routeLength="515.64" waitingTime="143.00" waitingCount="3" stopTime="0.00" timeLoss="204.06" rerouteNo="0" devices="tripinfo_4.15" vType="DEFAULT_VEHTYPE" speedFactor="1.13" vaporized=""/>
    <tripinfo id="4.7" depart="31.00" departLane="-830696993#1_0" departPos="5.10" departSpeed="0.00" departDelay="27.00" arrival="282.00" arrivalLane="-1166042012_0" arrivalPos="74.36" arrivalSpeed="11.91" duration="251.00" routeLength="515.64" waitingTime="168.00" waitingCount="3" stopTime="0.00" timeLoss="223.57" rerouteNo="0" devices="tripinfo_4.7" vType="DEFAULT_VEHTYPE" speedFactor="0.91" vaporized=""/>
    <tripinfo id="4.27" depart="120.00" departLane="-830696993#1_0" departPos="5.10" departSpeed="0.00" departDelay="116.00" arrival="286.00" arrivalLane="-1166042012_0" arrivalPos="74.36" arrivalSpeed="13.08" duration="166.00" routeLength="515.64" waitingTime="106.00" waitingCount="2" stopTime="0.00" timeLoss="138.81" rerouteNo="0" devices="tripinfo_4.27" vType="DEFAULT_VEHTYPE" speedFactor="0.95" vaporized=""/>
    <tripinfo id="5.15" depart="54.00" departLane="-19552780_0" departPos="5.10" departSpeed="0.00" departDelay="49.00" arrival="288.00" arrivalLane="1256973142#0_0" arrivalPos="182.62" arrivalSpeed="10.54" duration="234.00" routeLength="660.21" waitingTime="132.00" waitingCount="3" stopTime="0.00" timeLoss="176.77" rerouteNo="0" devices="tripinfo_5.15" vType="DEFAULT_VEHTYPE" speedFactor="0.80" vaporized=""/>
    <tripinfo id="6.5" depart="21.00" departLane="-1166042012_0" departPos="5.10" departSpeed="0.00" departDelay="15.00" arrival="289.00" arrivalLane="-203195317_0" arrivalPos="10.64" arrivalSpeed="10.46" duration="268.00" routeLength="603.49" waitingTime="159.00" waitingCount="4" stopTime="0.00" timeLoss="227.14" rerouteNo="0" devices="tripinfo_6.5" vType="DEFAULT_VEHTYPE" speedFactor="0.82" vaporized=""/>
    <tripinfo id="4.18" depart="61.00" departLane="-830696993#1_0" departPos="5.10" departSpeed="0.00" departDelay="57.00" arrival="290.00" arrivalLane="-1166042012_0" arrivalPos="74.36" arrivalSpeed="11.77" duration="229.00" routeLength="515.64" waitingTime="147.00" waitingCount="4" stopTime="0.00" timeLoss="200.49" rerouteNo="0" devices="tripinfo_4.18" vType="DEFAULT_VEHTYPE" speedFactor="0.90" vaporized=""/>
    <tripinfo id="5.16" depart="59.00" departLane="-19552780_0" departPos="5.10" departSpeed="0.00" departDelay="54.00" arrival="290.00" arrivalLane="1256973142#0_0" arrivalPos="182.62" arrivalSpeed="11.81" duration="231.00" routeLength="660.21" waitingTime="127.00" waitingCount="3" stopTime="0.00" timeLoss="180.82" rerouteNo="0" devices="tripinfo_5.16" vType="DEFAULT_VEHTYPE" speedFactor="0.90" vaporized=""/>
    <tripinfo id="5.17" depart="62.00" departLane="-19552780_0" departPos="5.10" departSpeed="0.00" departDelay="57.00" arrival="293.00" arrivalLane="1256973142#0_0" arrivalPos="182.62" arrivalSpeed="11.68" duration="231.00" routeLength="660.21" waitingTime="126.00" waitingCount="3" stopTime="0.00" timeLoss="178.75" rerouteNo="0" devices="tripinfo_5.17" vType="DEFAULT_VEHTYPE" speedFactor="0.88" vaporized=""/>
    <tripinfo id="4.28" depart="123.00" departLane="-830696993#1_0" departPos="5.10" departSpeed="0.00" departDelay="119.00" arrival="294.00" arrivalLane="-1166042012_0" arrivalPos="74.36" arrivalSpeed="11.99" duration="171.00" routeLength="515.64" waitingTime="108.00" waitingCount="3" stopTime="0.00" timeLoss="143.70" rerouteNo="0" devices="tripinfo_4.28" vType="DEFAULT_VEHTYPE" speedFactor="0.94" vaporized=""/>
    <tripinfo id="5.18" depart="66.00" departLane="-19552780_0" departPos="5.10" departSpeed="0.00" departDelay="61.00" arrival="294.00" arrivalLane="1256973142#0_0" arrivalPos="182.62" arrivalSpeed="12.57" duration="228.00" routeLength="660.21" waitingTime="118.00" waitingCount="3" stopTime="0.00" timeLoss="181.41" rerouteNo="0" devices="tripinfo_5.18" vType="DEFAULT_VEHTYPE" speedFactor="0.99" vaporized=""/>
    <tripinfo id="5.19" depart="69.00" departLane="-19552780_0" departPos="5.10" departSpeed="0.00" departDelay="64.00" arrival="296.00" arrivalLane="1256973142#0_0" arrivalPos="182.62" arrivalSpeed="12.55" duration="227.00" routeLength="660.21" waitingTime="121.00" waitingCount="3" stopTime="0.00" timeLoss="183.02" rerouteNo="0" devices="tripinfo_5.19" vType="DEFAULT_VEHTYPE" speedFactor="1.00" vaporized=""/>
    <tripinfo id="5.20" depart="72.00" departLane="-19552780_0" departPos="5.10" departSpeed="0.00" departDelay="67.00" arrival="300.00" arrivalLane="1256973142#0_0" arrivalPos="182.62" arrivalSpeed="11.98" duration="228.00" routeLength="660.21" waitingTime="115.00" waitingCount="3" stopTime="0.00" timeLoss="177.97" rerouteNo="0" devices="tripinfo_5.20" vType="DEFAULT_VEHTYPE" speedFactor="0.92" vaporized=""/>
    <tripinfo id="3.1" depart="5.00" departLane="830696983_0" departPos="5.10" departSpeed="0.00" departDelay="2.00" arrival="302.00" arrivalLane="-19527973#0_0" arrivalPos="19.72" arrivalSpeed="7.94" duration="297.00" routeLength="580.64" waitingTime="222.00" waitingCount="7" stopTime="0.00" timeLoss="272.34" rerouteNo="0" devices="tripinfo_3.1" vType="DEFAULT_VEHTYPE" speedFactor="1.10" vaporized=""/>
    <tripinfo id="5.21" depart="75.00" departLane="-19552780_0" departPos="5.10" departSpeed="0.00" departDelay="70.00" arrival="302.00" arrivalLane="1256973142#0_0" arrivalPos="182.62" arrivalSpeed="14.17" duration="227.00" routeLength="660.21" waitingTime="114.00" waitingCount="3" stopTime="0.00" timeLoss="183.58" rerouteNo="0" devices="tripinfo_5.21" vType="DEFAULT_VEHTYPE" speedFactor="1.04" vaporized=""/>
    <tripinfo id="1.9" depart="28.00" departLane="-826542444_0" departPos="5.10" departSpeed="0.00" departDelay="27.00" arrival="340.00" arrivalLane="-49828222_0" arrivalPos="3.99" arrivalSpeed="9.22" duration="312.00" routeLength="565.16" waitingTime="231.00" waitingCount="6" stopTime="0.00" timeLoss="293.82" rerouteNo="0" devices="tripinfo_1.9" vType="DEFAULT_VEHTYPE" speedFactor="1.13" vaporized=""/>
    <tripinfo id="6.6" depart="24.00" departLane="-1166042012_0" departPos="5.10" departSpeed="0.00" departDelay="18.00" arrival="341.00" arrivalLane="-203195317_0" arrivalPos="10.64" arrivalSpeed="11.50" duration="317.00" routeLength="603.49" waitingTime="207.00" waitingCount="4" stopTime="0.00" timeLoss="287.19" rerouteNo="0" devices="tripinfo_6.6" vType="DEFAULT_VEHTYPE" speedFactor="1.08" vaporized=""/>
    <tripinfo id="1.11" depart="34.00" departLane="-826542444_0" departPos="5.10" departSpeed="0.00" departDelay="33.00" arrival="342.00" arrivalLane="-49828222_0" arrivalPos="3.99" arrivalSpeed="10.89" duration="308.00" routeLength="565.16" waitingTime="223.00" waitingCount="5" stopTime="0.00" timeLoss="287.95" rerouteNo="0" devices="tripinfo_1.11" vType="DEFAULT_VEHTYPE" speedFactor="1.03" vaporized=""/>
    <tripinfo id="1.13" depart="40.00" departLane="-826542444_0" departPos="5.10" departSpeed="0.00" departDelay="39.00" arrival="344.00" arrivalLane="-49828222_0" arrivalPos="3.99" arrivalSpeed="11.74" duration="304.00" routeLength="565.16" waitingTime="213.00" waitingCount="5" stopTime="0.00" timeLoss="280.24" rerouteNo="0" devices="tripinfo_1.13" vType="DEFAULT_VEHTYPE" speedFactor="0.87" vaporized=""/>
    <tripinfo id="6.7" depart="27.00" departLane="-1166042012_0" departPos="5.10" departSpeed="0.00" departDelay="21.00" arrival="344.00" arrivalLane="-203195317_0" arrivalPos="10.64" arrivalSpeed="11.86" duration="317.00" routeLength="603.49" waitingTime="204.00" waitingCount="4" stopTime="0.00" timeLoss="284.66" rerouteNo="0" devices="tripinfo_6.7" vType="DEFAULT_VEHTYPE" speedFactor="1.00" vaporized=""/>
    <tripinfo id="1.15" depart="67.00" departLane="-826542444_0" departPos="5.10" departSpeed="0.00" departDelay="66.00" arrival="345.00" arrivalLane="-49828222_0" arrivalPos="3.99" arrivalSpeed="12.24" duration="278.00" routeLength="565.16" waitingTime="188.00" waitingCount="5" stopTime="0.00" timeLoss="261.38" rerouteNo="0" devices="tripinfo_1.15" vType="DEFAULT_VEHTYPE" speedFactor="1.23" vaporized=""/>
    <tripinfo id="6.8" depart="30.00" departLane="-1166042012_0" departPos="5.10" departSpeed="0.00" departDelay="24.00" arrival="346.00" arrivalLane="-203195317_0" arrivalPos="10.64" arrivalSpeed="12.29" duration="316.00" routeLength="603.49" waitingTime="200.00" waitingCount="4" stopTime="0.00" timeLoss="282.29" rerouteNo="0" devices="tripinfo_6.8" vType="DEFAULT_VEHTYPE" speedFactor="0.97" vaporized=""/>
    <tripinfo id="1.16" depart="70.00" departLane="-826542444_0" departPos="5.10" departSpeed="0.00" departDelay="69.00" arrival="348.00" arrivalLane="-49828222_0" arrivalPos="3.99" arrivalSpeed="13.57" duration="278.00" routeLength="565.16" waitingTime="180.00" waitingCount="5" stopTime="0.00" timeLoss="256.97" rerouteNo="0" devices="tripinfo_1.16" vType="DEFAULT_VEHTYPE" speedFactor="0.99" vaporized=""/>
    <tripinfo id="6.9" depart="33.00" departLane="-1166042012_0" departPos="5.10" departSpeed="0.00" departDelay="27.00" arrival="348.00" arrivalLane="-203195317_0" arrivalPos="10.64" arrivalSpeed="11.31" duration="315.00" routeLength="603.49" waitingTime="206.00" waitingCount="4" stopTime="0.00" timeLoss="277.78" rerouteNo="0" devices="tripinfo_6.9" vType="DEFAULT_VEHTYPE" speedFactor="0.89" vaporized=""/>
    <tripinfo id="6.10" depart="36.00" departLane="-1166042012_0" departPos="5.10" departSpeed="0.00" departDelay="30.00" arrival="352.00" arrivalLane="-203195317_0" arrivalPos="10.64" arrivalSpeed="10.92" duration="316.00" routeLength="603.49" waitingTime="203.00" waitingCount="4" stopTime="0.00" timeLoss="280.98" rerouteNo="0" devices="tripinfo_6.10" vType="DEFAULT_VEHTYPE" speedFactor="0.93" vaporized=""/>
    <tripinfo id="5.22" depart="78.00" departLane="-19552780_0" departPos="5.10" departSpeed="0.00" departDelay="73.00" arrival="361.00" arrivalLane="1256973142#0_0" arrivalPos="182.62" arrivalSpeed="15.35" duration="283.00" routeLength="660.21" waitingTime="171.00" waitingCount="4" stopTime="0.00" timeLoss="242.59" rerouteNo="0" devices="tripinfo_5.22" vType="DEFAULT_VEHTYPE" speedFactor="1.13" vaporized=""/>
    <tripinfo id="5.23" depart="81.00" departLane="-19552780_0" departPos="5.10" departSpeed="0.00" departDelay="76.00" arrival="365.00" arrivalLane="1256973142#0_0" arrivalPos="182.62" arrivalSpeed="13.38" duration="284.00" routeLength="660.21" waitingTime="169.00" waitingCount="5" stopTime="0.00" timeLoss="241.42" rerouteNo="0" devices="tripinfo_5.23" vType="DEFAULT_VEHTYPE" speedFactor="1.05" vaporized=""/>